36
POL 36mer t= 0000.00000 step= 0
MER      102.78000       94.37000       99.90000
MER      111.27000       99.56000       98.97000
MER      109.39000       89.93000      100.05000
MER      101.25000       87.84000       94.72000
MER       95.21000       82.22000      100.39000
MER      104.25000       86.03000       97.97000
MER      111.44000       85.46000       90.97000
MER      108.07000       81.49000       99.71000
MER      103.33000       73.09000      102.49000
MER       98.92000       80.67000      106.99000
MER       89.50000       81.88000      109.65000
MER       97.81000       86.80000      112.46000
MER       97.52000       96.14000      115.86000
MER       92.53000       99.77000      107.85000
MER      102.10000      102.30000      109.80000
MER      103.87000      101.32000      100.01000
MER       97.03000      107.78000       96.56000
MER      102.15000      114.73000      101.87000
MER       92.15000      113.63000      102.70000
MER       90.24000      111.52000      112.46000
MER       88.56000      111.84000      102.57000
MER       96.89000      115.78000       98.54000
MER       92.52000      108.27000       93.05000
MER       96.44000      110.82000       84.27000
MER       95.99000      120.74000       85.76000
MER      104.86000      116.28000       84.14000
MER      110.07000      124.29000       87.03000
MER      100.69000      126.91000       87.06000
MER      101.80000      123.07000       96.24000
MER      101.23000      124.83000      106.15000
MER       94.51000      125.07000       98.49000
MER       93.63000      115.45000      100.07000
MER       89.81000      115.77000       90.77000
MER       95.12000      124.31000       91.50000
MER       92.47000      117.57000       84.81000
MER      101.28000      122.47000       84.67000
